
                                 *****************
                                 * O   R   C   A *
                                 *****************

                                            #,                                       
                                            ###                                      
                                            ####                                     
                                            #####                                    
                                            ######                                   
                                           ########,                                 
                                     ,,################,,,,,                         
                               ,,#################################,,                 
                          ,,##########################################,,             
                       ,#########################################, ''#####,          
                    ,#############################################,,   '####,        
                  ,##################################################,,,,####,       
                ,###########''''           ''''###############################       
              ,#####''   ,,,,##########,,,,          '''####'''          '####       
            ,##' ,,,,###########################,,,                        '##       
           ' ,,###''''                  '''############,,,                           
         ,,##''                                '''############,,,,        ,,,,,,###''
      ,#''                                            '''#######################'''  
     '                                                          ''''####''''         
             ,#######,   #######,   ,#######,      ##                                
            ,#'     '#,  ##    ##  ,#'     '#,    #''#        ,####,    ,#,          
            ##       ##  ##   ,#'  ##            #'  '#       #'       ,# #          
            ##       ##  #######   ##           ,######,      #####,      #          
            '#,     ,#'  ##    ##  '#,     ,#' ,#      #,     #,   #      #          
             '#######'   ##     ##  '#######'  #'      '#     '####' #    #          



                #########################################################
                #                        -***-                          #
                #          Department of theory and spectroscopy        #
                #                                                       #
                #                      Frank Neese                      #
                #                                                       #
                #     Directorship, Architecture, Infrastructure        #

  [... intermediate SCF/geometry-optimization cycles trimmed for this
       repository - see the full ORCA output for every iteration ...]

*Only the first 10 virtual orbitals were printed.

                    ********************************
                    * MULLIKEN POPULATION ANALYSIS *
                    ********************************

-----------------------
MULLIKEN ATOMIC CHARGES
-----------------------
   0 C :    0.074981
   1 O :   -0.187949
   2 H :    0.056484
   3 H :    0.056484
Sum of atomic charges:   -0.0000000

--------------------------------
MULLIKEN REDUCED ORBITAL CHARGES
--------------------------------
  0 C s       :     3.136555  s :     3.136555
      pz      :     0.914489  p :     2.788464
      px      :     1.018708
      py      :     0.855267

  1 O s       :     3.867486  s :     3.867486
      pz      :     1.085608  p :     4.320463
      px      :     1.911301
      py      :     1.323554

  2 H s       :     0.943516  s :     0.943516

  3 H s       :     0.943516  s :     0.943516



                     *******************************
                     * LOEWDIN POPULATION ANALYSIS *
                     *******************************

----------------------
LOEWDIN ATOMIC CHARGES
----------------------
   0 C :    0.083084
   1 O :   -0.115874
   2 H :    0.016395
   3 H :    0.016395

-------------------------------
LOEWDIN REDUCED ORBITAL CHARGES
-------------------------------
  0 C s       :     3.039360  s :     3.039360
      pz      :     0.916408  p :     2.877556
      px      :     1.035468
      py      :     0.925680

  1 O s       :     3.749101  s :     3.749101
      pz      :     1.083751  p :     4.366773
      px      :     1.914270
      py      :     1.368752

  2 H s       :     0.983605  s :     0.983605

  3 H s       :     0.983605  s :     0.983605



                      *****************************
                      * MAYER POPULATION ANALYSIS *
                      *****************************

  NA   - Mulliken gross atomic population
  ZA   - Total nuclear charge
  QA   - Mulliken gross atomic charge
  VA   - Mayer's total valence
  BVA  - Mayer's bonded valence
  FA   - Mayer's free valence

  ATOM       NA         ZA         QA         VA         BVA        FA
  0 C      5.9250     6.0000     0.0750     3.9075     3.9075     0.0000
  1 O      8.1879     8.0000    -0.1879     2.1273     2.1273    -0.0000
  2 H      0.9435     1.0000     0.0565     0.9968     0.9968     0.0000
  3 H      0.9435     1.0000     0.0565     0.9968     0.9968    -0.0000

  Mayer bond orders larger than 0.100000
B(  0-C ,  1-O ) :   2.0366 B(  0-C ,  2-H ) :   0.9354 B(  0-C ,  3-H ) :   0.9354 


-------
TIMINGS
-------

Total SCF time: 0 days 0 hours 0 min 0 sec 

Total time                  ....       0.110 sec
Sum of individual times     ....       0.087 sec  ( 79.4%)

SCF preparation             ....       0.032 sec  ( 29.4%)
Fock matrix formation       ....       0.011 sec  ( 10.3%)
  Startup                   ....       0.001 sec  (  5.8% of F)
  Coulomb+Exchange Fock     ....       0.012 sec  (103.0% of F)
Diagonalization             ....       0.000 sec  (  0.0%)
Density matrix formation    ....       0.001 sec  (  0.9%)
Total Energy calculation    ....       0.000 sec  (  0.2%)
Population analysis         ....       0.029 sec  ( 26.0%)
Orbital Transformation      ....       0.001 sec  (  1.1%)
Orbital Orthonormalization  ....       0.000 sec  (  0.0%)
DIIS solution               ....       0.001 sec  (  0.5%)
SOSCF solution              ....       0.012 sec  ( 11.1%)
Finished LeanSCF after   0.1 sec

Maximum memory used throughout the entire LEANSCF-calculation: 4.4 MB

-------------------------   --------------------
FINAL SINGLE POINT ENERGY      -112.354347120587
-------------------------   --------------------

                                *** OPTIMIZATION RUN DONE ***


------------------------------------------------------------------------------
                              ORCA PROPERTY CALCULATIONS
------------------------------------------------------------------------------

GBWName                                 ... decomp_gas.gbw
Number of atoms                         ...      4
Number of basis functions               ...     12
Max core memory                         ...   4096 MB

Electric properties:
Dipole moment                           ... YES
Quadrupole moment                       ...  NO
Static polarizability (Dipole/Dipole)   ...  NO
Static polarizability (Dipole/Quad.)    ...  NO
Static polarizability (Quad./Quad.)     ...  NO
Static polarizability (Velocity)        ...  NO
Static hyperpolarizability              ...  NO

Atomic electric properties:
Dipole moment                           ...  NO
Quadrupole moment                       ...  NO
Static polarizability                   ...  NO

Choice of electric origin               ... Center of mass
Position of electric origin             ...     0.000000     2.177475    -0.026418

General magnetic properties:
Magnetizability                         ...  NO

EPR properties:
g-Tensor (aka g-matrix)                 ...  NO
Zero-Field splitting spin-orbit         ...  NO
Zero-field splitting spin-spin          ...  NO
Hyperfine couplings                     ...  NO (   0 nuclei)
Quadrupole couplings                    ...  NO (   0 nuclei)
Contact density                         ...  NO (   0 nuclei)

NMR properties:
Chemical shifts                         ...  NO (   0 nuclei)
Spin-rotation constants                 ...  NO (   0 nuclei)
Spin-spin couplings                     ...  NO (   0 nuclei,    0 pairs)

Choice of magnetic origin               ... GIAO
Position of magnetic origin             ...     0.000000     0.000000     0.000000

Properties with geometric perturbations:
SCF Hessian                             ...  NO
IR spectrum                             ...  NO
VCD spectrum                            ...  NO
X-ray spectroscopy properties:
SCF XES/XAS/RIXS spectra                ...  NO

SCF SOC stabilization energy            ...  NO
Diagonal Born-Oppenheimer correction    ...  NO

-------------
DIPOLE MOMENT
-------------

Method             : SCF
Type of density    : Electron Density
Multiplicity       :   1
Irrep              :   0
Energy             :  -112.3543471205871356 Eh
Basis              : AO
                                X                 Y                 Z
Electronic contribution:      0.000000000       1.644917508      -0.038212143
Nuclear contribution   :      0.000000000      -2.249412245       0.052254655
                        -----------------------------------------
Total Dipole Moment    :      0.000000000      -0.604494737       0.014042512
                        -----------------------------------------
Magnitude (a.u.)       :      0.604657820
Magnitude (Debye)      :      1.536918037



--------------------
Rotational spectrum 
--------------------
 
Rotational constants in cm-1:             9.742596             1.268552             1.122407 
Rotational constants in MHz :        292075.675175         38030.225937         33648.910487 

Dipole components along the rotational axes: 
x,y,z [a.u.] :    -0.604658     0.000000     0.000000 
x,y,z [Debye]:    -1.536918     0.000000     0.000000 

 

Dipole moment calculation done in   0.0 sec 

Maximum memory used throughout the entire PROP-calculation: 1.6 MB

--------------------------------
SUGGESTED CITATIONS FOR THIS RUN
--------------------------------

Below you find a list of papers that are relevant to this ORCA run
We neither can nor want to force you to cite these papers, but we appreciate if you do
You receive ORCA, which is the product of decades of hard work by many enthusiastic individuals, for free
The only thing we kindly ask in return is that you cite our papers,
We deeply appreciate it, if you show your appreciation for ORCA by not just citing the generic ORCA reference.

Please note that relegating all ORCA citations to the supporting information does *not* help us.
SI sections are not indexed - citations you put there will not count into any citation statistics
But we need these citations in order to attract the funding resources that allow us to do what we are doing

Therefore, if you are a happy ORCA user, please consider citing a few of the papers listed below in the main body of your paper

In addition to the list printed below, the program has created the file decomp_gas.bibtex that contains the list in bibtex format
You can import this file easily into all common literature databanks and citation aid programs


List of essential papers. We consider these as the minimum necessary citations

  1. Neese, F.
     Software update: the ORCA program system, version 6.0
     WIRES Comput. Molec. Sci. 2025 15(1), e70019
     doi.org/10.1002/wcms.7019

List of papers to cite with high priority. The work reported in these papers was absolutely
necessary for this run to complete.
Our perspective: the developers of density functionals and basis sets usually get cited in chemistry papers
Good! But without the algorithms to do something with them, the functionals or basis sets would not do anything.
Hence, in our opinion, the algorithm design and method developments papers are equally worthy of getting cited

  1. Neese, F.
     The SHARK Integral Generation and Digestion System
     J. Comp. Chem. 2022 44(3), 381
     doi.org/10.1002/jcc.26942

List of suggested additional citations. These are papers that are important in the 'surrounding' of 
of this run, or papers that preceded the highly important papers. If you like your results we are grateful for a citation.

  1. Neese, F.
     The ORCA program system
     WIRES Comput. Molec. Sci. 2012 2(1), 73-78
     doi.org/10.1002/wcms.81
  2. Neese, F.
     Software update: the ORCA program system, version 4.0
     WIRES Comput. Molec. Sci. 2018 8(1), 1-6
     doi.org/10.1002/wcms.1327
  3. Neese, F.; Wennmohs, F.; Becker, U.; Riplinger, C.
     The ORCA quantum chemistry program package
     J. Chem. Phys. 2020 152(22), 224108
     doi.org/10.1063/5.0004608
  4. Neese, F.
     Software update: The ORCA program system—Version 5.0
     WIRES Comput. Molec. Sci. 2022 12(1), e1606
     doi.org/10.1002/wcms.1606

List of optional additional citations

  1. Neese, F.
     Approximate second-order SCF convergence for spin unrestricted wavefunctions
     Chem. Phys. Lett. 2000 325(1-3), 93-98
     doi.org/10.1016/s0009-2614(00)00662-x

Timings for individual modules:

Sum of individual times          ...       11.060 sec (=   0.184 min)
Startup calculation              ...        3.610 sec (=   0.060 min)  32.6 %
SCF iterations                   ...        5.460 sec (=   0.091 min)  49.4 %
Property calculations            ...        0.069 sec (=   0.001 min)   0.6 %
SCF Gradient evaluation          ...        1.852 sec (=   0.031 min)  16.7 %
Geometry relaxation              ...        0.069 sec (=   0.001 min)   0.6 %
                             ****ORCA TERMINATED NORMALLY****
TOTAL RUN TIME: 0 days 0 hours 0 minutes 12 seconds 384 msec
